11
	Energy:       6.8366422
C        -16.38245        2.64976        7.93005
C        -15.46392        3.01337        7.77486
C        -14.66457        2.61706        8.22650
C        -14.00699        2.34307        7.52470
C        -13.56714        1.47163        7.74177
C        -14.22118        0.72119        7.83704
C        -14.82193        0.64905        7.04086
C        -15.76996        0.62902        7.35843
C        -16.37852        0.95691        6.63584
C        -17.35238        1.09984        6.81238
C        -17.16749        3.03597        7.44573
